;;
;; Generated by CHARMM-GUI FF-Converter
;;
;; Correspondance:
;; jul316@lehigh.edu or wonpil@lehigh.edu
;;
;; GROMACS topology file for Cl-
;;


[ moleculetype ]
; name	nrexcl
CL	     1

[ atoms ]
; nr	type	resnr	residu	atom	cgnr	charge	mass
     1        Cl-     33      Cl-    Cl-      1    -1.000000    35.4500   ; qtot -1.000

[ position_restraints ]
    1     1    10000    10000    10000
