ions are named to match amber, waters name remnain as SOL for script
   25
    1Cl-    Cl-    1   0.042  -0.017   0.009  0.0693 -0.1730  0.0526
    2SOL     OW    2  -0.314  -0.147  -0.043  0.1572  0.2085 -0.7241
    2SOL    HW1    3  -0.277  -0.094   0.027  0.1104  0.3357 -0.7950
    2SOL    HW2    4  -0.403  -0.168  -0.014  0.1489  0.2346 -0.7311
    3SOL     OW    5   0.326  -0.065   0.049  0.2412 -0.8377 -0.3138
    3SOL    HW1    6   0.313  -0.030   0.137  1.3162  3.3689 -1.5470
    3SOL    HW2    7   0.238  -0.077   0.014 -0.2700  0.8929  0.2523
    4SOL     OW    8   0.196   0.101  -0.300 -0.5289 -0.2871 -0.3928
    4SOL    HW1    9   0.111   0.058  -0.303 -0.6484 -0.0319 -0.7676
    4SOL    HW2   10   0.194   0.154  -0.221 -0.9922  0.2657 -0.7690
    5SOL     OW   11   0.188   0.261   0.062  0.1096 -0.3561  0.8432
    5SOL    HW1   12   0.119   0.197   0.080  0.2679 -0.3890  1.3285
    5SOL    HW2   13   0.263   0.208   0.035  0.2581 -0.3818  1.2996
    6SOL     OW   14   0.014   0.076   0.358  0.4585  0.2394  0.2100
    6SOL    HW1   15  -0.011   0.116   0.275 -0.4207  0.6937  0.6746
    6SOL    HW2   16   0.031  -0.016   0.337  3.7724  1.0287 -1.1289
    7SOL     OW   17  -0.142  -0.182   0.229  0.1374  0.1474 -0.8869
    7SOL    HW1   18  -0.087  -0.155   0.156 -0.9194  0.2843 -1.6476
    7SOL    HW2   19  -0.213  -0.231   0.189  0.6641 -1.6480  0.2385
    8SOL     OW   20  -0.199   0.173  -0.164 -0.4929 -0.1873  0.5491
    8SOL    HW1   21  -0.145   0.106  -0.124  1.1050  0.3890 -0.5310
    8SOL    HW2   22  -0.221   0.233  -0.093 -0.3373 -0.8341  1.1464
    9SOL     OW   23   0.008  -0.158  -0.261  0.4556 -0.1856  0.2397
    9SOL    HW1   24   0.026  -0.126  -0.173  1.6165  1.0927 -0.4291
    9SOL    HW2   25  -0.062  -0.222  -0.250  0.4765  0.0771  2.0595
   1.00000   1.00000   1.00000
