Written by MDAnalysis
   25
    1CL      CL    1   0.542   0.483   0.509  0.0693 -0.1730  0.0526
    2SOL     OW    2   0.186   0.353   0.457  0.1572  0.2085 -0.7241
    2SOL    HW1    3   0.223   0.406   0.527  0.1104  0.3357 -0.7950
    2SOL    HW2    4   0.097   0.332   0.486  0.1489  0.2346 -0.7311
    3SOL     OW    5   0.826   0.435   0.549  0.2412 -0.8377 -0.3138
    3SOL    HW1    6   0.813   0.470   0.637  1.3162  3.3689 -1.5470
    3SOL    HW2    7   0.738   0.423   0.514 -0.2700  0.8929  0.2523
    4SOL     OW    8   0.696   0.601   0.200 -0.5289 -0.2871 -0.3928
    4SOL    HW1    9   0.611   0.558   0.197 -0.6484 -0.0319 -0.7676
    4SOL    HW2   10   0.694   0.654   0.279 -0.9922  0.2657 -0.7690
    5SOL     OW   11   0.688   0.761   0.562  0.1096 -0.3561  0.8432
    5SOL    HW1   12   0.619   0.697   0.580  0.2679 -0.3890  1.3285
    5SOL    HW2   13   0.763   0.708   0.535  0.2581 -0.3818  1.2996
    6SOL     OW   14   0.514   0.576   0.858  0.4585  0.2394  0.2100
    6SOL    HW1   15   0.489   0.616   0.775 -0.4207  0.6937  0.6746
    6SOL    HW2   16   0.531   0.484   0.837  3.7724  1.0287 -1.1289
    7SOL     OW   17   0.358   0.318   0.729  0.1374  0.1474 -0.8869
    7SOL    HW1   18   0.413   0.345   0.656 -0.9194  0.2843 -1.6476
    7SOL    HW2   19   0.287   0.269   0.689  0.6641 -1.6480  0.2385
    8SOL     OW   20   0.301   0.673   0.336 -0.4929 -0.1873  0.5491
    8SOL    HW1   21   0.355   0.606   0.376  1.1050  0.3890 -0.5310
    8SOL    HW2   22   0.279   0.733   0.407 -0.3373 -0.8341  1.1464
    9SOL     OW   23   0.508   0.342   0.239  0.4556 -0.1856  0.2397
    9SOL    HW1   24   0.526   0.374   0.327  1.6165  1.0927 -0.4291
    9SOL    HW2   25   0.438   0.278   0.250  0.4765  0.0771  2.0595
   1.00000   1.00000   1.00000
