ions are named to match amber, waters name remnain as SOL for script
   25
    1Na+    Na+    1  -0.035   0.007  -0.009  0.0425  0.0778  0.2315
    2SOL     OW    2  -0.097   0.268  -0.007 -0.7987  0.1128  0.1273
    2SOL    HW1    3  -0.098   0.328  -0.081  0.1848 -0.2788 -0.2078
    2SOL    HW2    4  -0.134   0.319   0.065 -3.2316  0.0252 -0.9556
    3SOL     OW    5  -0.017  -0.350   0.075 -0.2120 -0.2724  0.0426
    3SOL    HW1    6   0.029  -0.290   0.016 -1.0064  1.0616  0.7358
    3SOL    HW2    7  -0.106  -0.352   0.041 -0.1494 -1.2129 -0.0716
    4SOL     OW    8  -0.124  -0.032  -0.215 -0.1891 -0.0875  0.0179
    4SOL    HW1    9  -0.185   0.002  -0.281  1.4447  0.6343 -1.2126
    4SOL    HW2   10  -0.093  -0.115  -0.251  0.1714 -0.0486  0.2355
    5SOL     OW   11   0.128  -0.155  -0.073 -0.1204  0.3547 -0.0563
    5SOL    HW1   12   0.145  -0.141  -0.166  1.0248  0.6217  0.1719
    5SOL    HW2   13   0.213  -0.183  -0.038 -1.3856 -3.8206  0.2001
    6SOL     OW   14   0.247   0.189   0.120  0.5972 -0.2521 -0.2617
    6SOL    HW1   15   0.256   0.175   0.026  0.6304  1.5322 -0.5673
    6SOL    HW2   16   0.179   0.127   0.147  0.6887 -0.8904 -1.4221
    7SOL     OW   17   0.034   0.018   0.230  0.4280  0.7398  0.0434
    7SOL    HW1   18  -0.027  -0.037   0.279 -0.1205 -0.4002 -1.8156
    7SOL    HW2   19   0.052   0.092   0.288 -1.5762  0.3672  1.2266
    8SOL     OW   20  -0.206  -0.096   0.094  0.6862  0.0494 -0.0480
    8SOL    HW1   21  -0.282  -0.039   0.098  0.5153 -0.2503  1.5986
    8SOL    HW2   22  -0.190  -0.122   0.185  2.3857 -0.3788 -0.4282
    9SOL     OW   23   0.130   0.121  -0.146 -0.5098 -0.3676 -0.3688
    9SOL    HW1   24   0.126   0.067  -0.225 -0.9422  0.2206 -0.7557
    9SOL    HW2   25   0.066   0.191  -0.161  0.6134  0.7269 -0.2452
   1.00000   1.00000   1.00000
