Written by MDAnalysis
   25
    1NA      NA    1   0.465   0.507   0.491  0.0425  0.0778  0.2315
    2SOL     OW    2   0.403   0.768   0.493 -0.7987  0.1128  0.1273
    2SOL    HW1    3   0.402   0.828   0.419  0.1848 -0.2788 -0.2078
    2SOL    HW2    4   0.366   0.819   0.565 -3.2316  0.0252 -0.9556
    3SOL     OW    5   0.483   0.150   0.575 -0.2120 -0.2724  0.0426
    3SOL    HW1    6   0.529   0.210   0.516 -1.0064  1.0616  0.7358
    3SOL    HW2    7   0.394   0.148   0.541 -0.1494 -1.2129 -0.0716
    4SOL     OW    8   0.376   0.468   0.285 -0.1891 -0.0875  0.0179
    4SOL    HW1    9   0.315   0.502   0.219  1.4447  0.6343 -1.2126
    4SOL    HW2   10   0.407   0.385   0.249  0.1714 -0.0486  0.2355
    5SOL     OW   11   0.628   0.345   0.427 -0.1204  0.3547 -0.0563
    5SOL    HW1   12   0.645   0.359   0.334  1.0248  0.6217  0.1719
    5SOL    HW2   13   0.713   0.317   0.462 -1.3856 -3.8206  0.2001
    6SOL     OW   14   0.747   0.689   0.620  0.5972 -0.2521 -0.2617
    6SOL    HW1   15   0.756   0.675   0.526  0.6304  1.5322 -0.5673
    6SOL    HW2   16   0.679   0.627   0.647  0.6887 -0.8904 -1.4221
    7SOL     OW   17   0.534   0.518   0.730  0.4280  0.7398  0.0434
    7SOL    HW1   18   0.473   0.463   0.779 -0.1205 -0.4002 -1.8156
    7SOL    HW2   19   0.552   0.592   0.788 -1.5762  0.3672  1.2266
    8SOL     OW   20   0.294   0.404   0.594  0.6862  0.0494 -0.0480
    8SOL    HW1   21   0.218   0.461   0.598  0.5153 -0.2503  1.5986
    8SOL    HW2   22   0.310   0.378   0.685  2.3857 -0.3788 -0.4282
    9SOL     OW   23   0.630   0.621   0.354 -0.5098 -0.3676 -0.3688
    9SOL    HW1   24   0.626   0.567   0.275 -0.9422  0.2206 -0.7557
    9SOL    HW2   25   0.566   0.691   0.339  0.6134  0.7269 -0.2452
   1.00000   1.00000   1.00000
