Gyas ROwers Mature At Cryogenic Speed
   29
   33SOL     OW    1  -0.234  -0.190  -0.149
   33SOL    HW1    2  -0.202  -0.189  -0.240
   33SOL    HW2    3  -0.289  -0.111  -0.143
   33SOL     MW    4  -0.237  -0.180  -0.160
   34SOL     OW    5   0.159   0.013  -0.198
   34SOL    HW1    6   0.137   0.103  -0.222
   34SOL    HW2    7   0.153  -0.036  -0.280
   34SOL     MW    8   0.156   0.018  -0.211
   35SOL     OW    9  -0.215   0.198   0.022
   35SOL    HW1   10  -0.179   0.142   0.091
   35SOL    HW2   11  -0.289   0.149  -0.013
   35SOL     MW   12  -0.220   0.185   0.026
   36SOL     OW   13   0.253   0.222   0.028
   36SOL    HW1   14   0.320   0.263   0.083
   36SOL    HW2   15   0.267   0.128   0.039
   36SOL     MW   16   0.264   0.215   0.037
   37SOL     OW   17  -0.074   0.033   0.195
   37SOL    HW1   18  -0.017   0.108   0.211
   37SOL    HW2   19  -0.105   0.008   0.282
   37SOL     MW   20  -0.071   0.039   0.208
   38SOL     OW   21   0.209  -0.068   0.062
   38SOL    HW1   22   0.225  -0.055  -0.031
   38SOL    HW2   23   0.148  -0.142   0.066
   38SOL     MW   24   0.203  -0.076   0.051
   39SOL     OW   25  -0.062  -0.202   0.061
   39SOL    HW1   26  -0.091  -0.162   0.143
   39SOL    HW2   27  -0.142  -0.212   0.010
   39SOL     MW   28  -0.076  -0.198   0.065
   40NA      NA   29   0.002  -0.010  -0.038
   1.00000   1.00000   1.00000
