Written by MDAnalysis
   25
    1CL      CL    1  -0.023  -0.031  -0.053
    2SOL     OW    2  -0.259  -0.014   0.077
    2SOL    HW1    3  -0.231  -0.105   0.089
    2SOL    HW2    4  -0.330  -0.020   0.013
    2SOL     MW    5  -0.266  -0.026   0.072
    3SOL     OW    6   0.135  -0.270  -0.095
    3SOL    HW1    7   0.148  -0.176  -0.085
    3SOL    HW2    8   0.096  -0.280  -0.181
    3SOL     MW    9   0.131  -0.259  -0.105
    4SOL     OW   10  -0.022  -0.030   0.293
    4SOL    HW1   11   0.021   0.005   0.371
    4SOL    HW2   12  -0.039   0.047   0.239
    4SOL     MW   13  -0.019  -0.015   0.296
    5SOL     OW   14   0.187   0.011  -0.071
    5SOL    HW1   15   0.201  -0.017   0.020
    5SOL    HW2   16   0.273   0.042  -0.099
    5SOL     MW   17   0.200   0.012  -0.062
    6SOL     OW   18  -0.060   0.192   0.075
    6SOL    HW1   19  -0.128   0.126   0.091
    6SOL    HW2   20  -0.042   0.186  -0.018
    6SOL     MW   21  -0.067   0.183   0.066
    7SOL     OW   22   0.006   0.133  -0.222
    7SOL    HW1   23   0.098   0.114  -0.204
    7SOL    HW2   24  -0.021   0.063  -0.282
    7SOL     MW   25   0.014   0.121  -0.228
   0.80000   0.80000   0.80000
