Written by MDAnalysis
   36
    1CL      CL    1   0.048  -0.096   0.004
    2SOL     OW    2  -0.081  -0.101  -0.157
    2SOL    HW1    3  -0.062  -0.141  -0.242
    2SOL    HW2    4  -0.085  -0.007  -0.176
    2SOL    LP1    5  -0.031  -0.115  -0.111
    2SOL    LP2    6  -0.143  -0.124  -0.132
    3SOL     OW    7   0.151   0.204   0.027
    3SOL    HW1    8   0.061   0.170   0.021
    3SOL    HW2    9   0.188   0.160   0.104
    3SOL    LP1   10   0.150   0.273   0.037
    3SOL    LP2   11   0.188   0.189  -0.030
    4SOL     OW   12  -0.053   0.178  -0.189
    4SOL    HW1   13  -0.108   0.224  -0.253
    4SOL    HW2   14   0.036   0.205  -0.210
    4SOL    LP1   15  -0.060   0.109  -0.196
    4SOL    LP2   16  -0.070   0.198  -0.124
    5SOL     OW   17  -0.028  -0.072   0.208
    5SOL    HW1   18  -0.073   0.002   0.168
    5SOL    HW2   19  -0.097  -0.138   0.220
    5SOL    LP1   20   0.000  -0.054   0.269
    5SOL    LP2   21   0.022  -0.097   0.165
    6SOL     OW   22   0.359  -0.041  -0.086
    6SOL    HW1   23   0.395  -0.126  -0.110
    6SOL    HW2   24   0.273  -0.061  -0.049
    6SOL    LP1   25   0.354  -0.000  -0.142
    6SOL    LP2   26   0.400  -0.010  -0.038
    7SOL     OW   27  -0.130   0.142   0.081
    7SOL    HW1   28  -0.222   0.158   0.097
    7SOL    HW2   29  -0.120   0.151  -0.014
    7SOL    LP1   30  -0.112   0.077   0.101
    7SOL    LP2   31  -0.090   0.188   0.114
    8SOL     OW   32  -0.208  -0.286   0.132
    8SOL    HW1   33  -0.297  -0.274   0.167
    8SOL    HW2   34  -0.221  -0.294   0.037
    8SOL    LP1   35  -0.180  -0.345   0.158
    8SOL    LP2   36  -0.168  -0.231   0.147
   1.00000   1.00000   1.00000
