Written by MDAnalysis
   36
    1NA      NA    1   0.007  -0.080  -0.005
    2SOL     OW    2  -0.079  -0.102  -0.157
    2SOL    HW1    3  -0.060  -0.142  -0.242
    2SOL    HW2    4  -0.083  -0.008  -0.176
    2SOL    LP1    5  -0.029  -0.116  -0.111
    2SOL    LP2    6  -0.141  -0.125  -0.132
    3SOL     OW    7   0.153   0.203   0.027
    3SOL    HW1    8   0.063   0.169   0.021
    3SOL    HW2    9   0.189   0.159   0.104
    3SOL    LP1   10   0.152   0.272   0.037
    3SOL    LP2   11   0.189   0.188  -0.030
    4SOL     OW   12  -0.051   0.177  -0.189
    4SOL    HW1   13  -0.106   0.223  -0.253
    4SOL    HW2   14   0.038   0.204  -0.210
    4SOL    LP1   15  -0.058   0.108  -0.196
    4SOL    LP2   16  -0.068   0.197  -0.124
    5SOL     OW   17  -0.026  -0.073   0.208
    5SOL    HW1   18  -0.071   0.001   0.168
    5SOL    HW2   19  -0.095  -0.139   0.220
    5SOL    LP1   20   0.002  -0.055   0.269
    5SOL    LP2   21   0.024  -0.098   0.165
    6SOL     OW   22   0.361  -0.042  -0.086
    6SOL    HW1   23   0.397  -0.127  -0.110
    6SOL    HW2   24   0.275  -0.062  -0.049
    6SOL    LP1   25   0.355  -0.001  -0.142
    6SOL    LP2   26   0.402  -0.011  -0.038
    7SOL     OW   27  -0.128   0.141   0.081
    7SOL    HW1   28  -0.220   0.157   0.097
    7SOL    HW2   29  -0.118   0.150  -0.014
    7SOL    LP1   30  -0.110   0.076   0.101
    7SOL    LP2   31  -0.088   0.187   0.114
    8SOL     OW   32  -0.206  -0.287   0.132
    8SOL    HW1   33  -0.295  -0.275   0.167
    8SOL    HW2   34  -0.219  -0.295   0.037
    8SOL    LP1   35  -0.178  -0.346   0.158
    8SOL    LP2   36  -0.166  -0.232   0.147
   1.00000   1.00000   1.00000
